 128  128
1 1
    44.178109037575936     0.000000000000000    -0.000000000000000
     0.000000000000000    44.178109037575879    -0.000000000000002
    -0.000000000000000    -0.000000000000002    44.178109037575886
1 2
     1.396577584522158     0.721864762622515     0.721864762622515
    -0.721864762622516    -1.522934969912481    -1.591344429778752
    -0.721864762622516    -1.591344429778752    -1.522934969912481
1 3
     0.283726921883133    -0.000000000000000    -0.000000000000000
    -0.000000000000000    -0.059701760263720    -0.102004219050151
    -0.000000000000000    -0.102004219050151    -0.059701760263720
1 4
     1.396577584522158    -0.721864762622516    -0.721864762622516
     0.721864762622515    -1.522934969912481    -1.591344429778752
     0.721864762622515    -1.591344429778752    -1.522934969912481
1 5
    -1.522934969912482    -0.721864762622516    -1.591344429778753
     0.721864762622515     1.396577584522158     0.721864762622515
    -1.591344429778753    -0.721864762622515    -1.522934969912481
1 6
    -0.041571498199923     0.037393044026012    -0.030545421957001
     0.037393044026012    -0.041571498199923    -0.030545421957001
     0.007472837046101     0.007472837046101     0.029350383875437
1 7
    -0.041571498199923     0.030545421957001    -0.037393044026012
    -0.007472837046101     0.029350383875437     0.007472837046101
    -0.037393044026012    -0.030545421957001    -0.041571498199923
1 8
    -1.522934969912482     1.591344429778753     0.721864762622515
     1.591344429778753    -1.522934969912481    -0.721864762622515
    -0.721864762622516     0.721864762622516     1.396577584522158
1 9
    -0.059701760263720    -0.000000000000000    -0.102004219050151
    -0.000000000000000     0.283726921883133     0.000000000000000
    -0.102004219050151     0.000000000000000    -0.059701760263720
1 10
     0.029350383875437    -0.007472837046101     0.007472837046101
     0.030545421957001    -0.041571498199923    -0.037393044026012
    -0.030545421957001    -0.037393044026012    -0.041571498199923
1 11
    -0.059701760263720     0.102004219050151    -0.000000000000000
     0.102004219050151    -0.059701760263720     0.000000000000000
     0.000000000000000     0.000000000000000     0.283726921883133
1 12
     0.029350383875437     0.030545421957001    -0.030545421957001
    -0.007472837046101    -0.041571498199923    -0.037393044026012
     0.007472837046101    -0.037393044026012    -0.041571498199923
1 13
    -1.522934969912482     0.721864762622515    -1.591344429778753
    -0.721864762622516     1.396577584522158    -0.721864762622515
    -1.591344429778753     0.721864762622515    -1.522934969912481
1 14
    -1.522934969912482     1.591344429778753    -0.721864762622516
     1.591344429778753    -1.522934969912481     0.721864762622516
     0.721864762622515    -0.721864762622515     1.396577584522158
1 15
    -0.041571498199923    -0.007472837046101    -0.037393044026012
     0.030545421957001     0.029350383875437    -0.030545421957001
    -0.037393044026012     0.007472837046101    -0.041571498199923
1 16
    -0.041571498199923     0.037393044026012     0.007472837046101
     0.037393044026012    -0.041571498199923     0.007472837046101
    -0.030545421957001    -0.030545421957001     0.029350383875437
1 17
    -1.522934969912482    -1.591344429778753    -0.721864762622515
    -1.591344429778753    -1.522934969912481    -0.721864762622515
     0.721864762622516     0.721864762622516     1.396577584522158
1 18
    -0.041571498199923    -0.030545421957001     0.037393044026012
     0.007472837046101     0.029350383875437     0.007472837046101
     0.037393044026012    -0.030545421957001    -0.041571498199923
1 19
    -0.041571498199923    -0.037393044026012     0.030545421957001
    -0.037393044026012    -0.041571498199923    -0.030545421957001
    -0.007472837046101     0.007472837046101     0.029350383875437
1 20
    -1.522934969912482     0.721864762622515     1.591344429778753
    -0.721864762622516     1.396577584522158     0.721864762622515
     1.591344429778753    -0.721864762622515    -1.522934969912481
1 21
     0.029350383875437     0.007472837046101     0.007472837046101
    -0.030545421957001    -0.041571498199923     0.037393044026012
    -0.030545421957001     0.037393044026012    -0.041571498199923
1 22
    -0.025926451306954    -0.000000000000000     0.000000000000000
    -0.000000000000000    -0.025926451306954     0.000000000000000
     0.000000000000000     0.000000000000000    -0.025926451306954
1 23
     0.029350383875437    -0.007472837046101    -0.007472837046101
     0.030545421957001    -0.041571498199923     0.037393044026012
     0.030545421957001     0.037393044026012    -0.041571498199923
1 24
    -0.081641869470376    -0.000000000000000     0.000000000000000
    -0.000000000000000    -0.046476388581797     0.000000000000000
     0.000000000000000     0.000000000000000    -0.046476388581797
1 25
    -0.041571498199924    -0.037393044026012    -0.030545421957001
    -0.037393044026012    -0.041571498199923     0.030545421957001
     0.007472837046101    -0.007472837046101     0.029350383875437
1 26
    -0.041571498199923     0.030545421957001     0.037393044026012
    -0.007472837046101     0.029350383875437    -0.007472837046101
     0.037393044026012     0.030545421957001    -0.041571498199923
1 27
    -0.014392125492240    -0.005256455034646    -0.004629339708081
    -0.005256455034646    -0.014392125492239    -0.004629339708081
     0.004629339708081     0.004629339708081    -0.013715070749253
1 28
    -0.014392125492239     0.004629339708081     0.005256455034645
    -0.004629339708081    -0.013715070749253     0.004629339708081
     0.005256455034645    -0.004629339708081    -0.014392125492239
1 29
     1.396577584522158    -0.721864762622516     0.721864762622516
     0.721864762622515    -1.522934969912481     1.591344429778753
    -0.721864762622516     1.591344429778752    -1.522934969912481
1 30
    -0.046476388581798    -0.000000000000000     0.000000000000000
    -0.000000000000000    -0.081641869470376     0.000000000000000
     0.000000000000000     0.000000000000000    -0.046476388581797
1 31
    -0.013715070749253    -0.004629339708081     0.004629339708081
     0.004629339708081    -0.014392125492239     0.005256455034646
    -0.004629339708081     0.005256455034646    -0.014392125492239
1 32
    -0.046476388581798    -0.000000000000000    -0.000000000000000
    -0.000000000000000    -0.046476388581797     0.000000000000000
     0.000000000000000     0.000000000000000    -0.081641869470376
1 33
    -0.059701760263720    -0.102004219050151     0.000000000000000
    -0.102004219050151    -0.059701760263720     0.000000000000000
     0.000000000000000     0.000000000000000     0.283726921883133
1 34
     0.029350383875437     0.007472837046101    -0.007472837046101
    -0.030545421957001    -0.041571498199923    -0.037393044026012
     0.030545421957001    -0.037393044026012    -0.041571498199923
1 35
    -0.059701760263720    -0.000000000000000     0.102004219050151
    -0.000000000000000     0.283726921883133     0.000000000000000
     0.102004219050151     0.000000000000000    -0.059701760263720
1 36
     0.029350383875437    -0.030545421957001     0.030545421957001
     0.007472837046101    -0.041571498199923    -0.037393044026012
    -0.007472837046101    -0.037393044026012    -0.041571498199923
1 37
    -0.041571498199923    -0.030545421957001    -0.037393044026012
     0.007472837046101     0.029350383875437    -0.007472837046101
    -0.037393044026012     0.030545421957001    -0.041571498199923
1 38
    -0.041571498199923     0.037393044026012     0.030545421957001
     0.037393044026012    -0.041571498199923     0.030545421957001
    -0.007472837046101    -0.007472837046101     0.029350383875437
1 39
    -0.014392125492239    -0.004629339708081    -0.005256455034645
     0.004629339708081    -0.013715070749253     0.004629339708081
    -0.005256455034645    -0.004629339708081    -0.014392125492239
1 40
    -0.014392125492239     0.005256455034645     0.004629339708081
     0.005256455034645    -0.014392125492239    -0.004629339708081
    -0.004629339708081     0.004629339708081    -0.013715070749253
1 41
     0.283726921883133    -0.000000000000000    -0.000000000000000
    -0.000000000000000    -0.059701760263720     0.102004219050151
     0.000000000000000     0.102004219050151    -0.059701760263720
1 42
    -0.013715070749253     0.004629339708081     0.004629339708081
    -0.004629339708081    -0.014392125492239    -0.005256455034645
    -0.004629339708081    -0.005256455034645    -0.014392125492239
1 43
    -0.012034277930373    -0.000000000000000    -0.000000000000000
    -0.000000000000000    -0.012034277930373     0.000000000000000
     0.000000000000000     0.000000000000000    -0.012034277930373
1 44
    -0.013715070749253    -0.004629339708081    -0.004629339708081
     0.004629339708081    -0.014392125492239    -0.005256455034645
     0.004629339708081    -0.005256455034645    -0.014392125492239
1 45
    -0.041571498199923     0.007472837046101    -0.037393044026012
    -0.030545421957001     0.029350383875437     0.030545421957001
    -0.037393044026012    -0.007472837046101    -0.041571498199923
1 46
    -0.014392125492239     0.005256455034645    -0.004629339708081
     0.005256455034645    -0.014392125492239     0.004629339708081
     0.004629339708081    -0.004629339708081    -0.013715070749253
1 47
    -0.014392125492239     0.004629339708081    -0.005256455034645
    -0.004629339708081    -0.013715070749253    -0.004629339708081
    -0.005256455034645     0.004629339708081    -0.014392125492239
1 48
    -0.041571498199923     0.037393044026012    -0.007472837046101
     0.037393044026012    -0.041571498199923    -0.007472837046101
     0.030545421957001     0.030545421957001     0.029350383875437
1 49
    -1.522934969912482    -1.591344429778753     0.721864762622516
    -1.591344429778753    -1.522934969912481     0.721864762622516
    -0.721864762622515    -0.721864762622515     1.396577584522158
1 50
    -1.522934969912482    -0.721864762622516     1.591344429778753
     0.721864762622515     1.396577584522158    -0.721864762622515
     1.591344429778753     0.721864762622515    -1.522934969912481
1 51
    -0.041571498199923    -0.037393044026012    -0.007472837046101
    -0.037393044026012    -0.041571498199923     0.007472837046101
     0.030545421957001    -0.030545421957001     0.029350383875437
1 52
    -0.041571498199923     0.007472837046101     0.037393044026012
    -0.030545421957001     0.029350383875437    -0.030545421957001
     0.037393044026012     0.007472837046101    -0.041571498199923
1 53
     1.396577584522158     0.721864762622515    -0.721864762622516
    -0.721864762622516    -1.522934969912481     1.591344429778752
     0.721864762622516     1.591344429778753    -1.522934969912481
1 54
    -0.046476388581798    -0.000000000000000    -0.000000000000000
    -0.000000000000000    -0.046476388581797     0.000000000000000
     0.000000000000000     0.000000000000000    -0.081641869470376
1 55
    -0.013715070749253     0.004629339708081    -0.004629339708081
    -0.004629339708081    -0.014392125492239     0.005256455034646
     0.004629339708081     0.005256455034646    -0.014392125492239
1 56
    -0.046476388581798    -0.000000000000000    -0.000000000000000
    -0.000000000000000    -0.081641869470376     0.000000000000000
    -0.000000000000000     0.000000000000000    -0.046476388581797
1 57
    -0.041571498199923    -0.037393044026012     0.007472837046101
    -0.037393044026012    -0.041571498199923    -0.007472837046101
    -0.030545421957001     0.030545421957001     0.029350383875437
1 58
    -0.014392125492239    -0.004629339708081     0.005256455034645
     0.004629339708081    -0.013715070749253    -0.004629339708081
     0.005256455034645     0.004629339708081    -0.014392125492239
1 59
    -0.014392125492239    -0.005256455034646     0.004629339708081
    -0.005256455034646    -0.014392125492239     0.004629339708081
    -0.004629339708081    -0.004629339708081    -0.013715070749253
1 60
    -0.041571498199923    -0.007472837046101     0.037393044026012
     0.030545421957001     0.029350383875437     0.030545421957001
     0.037393044026012    -0.007472837046101    -0.041571498199923
1 61
     0.029350383875437    -0.030545421957001    -0.030545421957001
     0.007472837046101    -0.041571498199923     0.037393044026012
     0.007472837046101     0.037393044026012    -0.041571498199923
1 62
    -0.081641869470376    -0.000000000000000    -0.000000000000000
    -0.000000000000000    -0.046476388581797     0.000000000000000
     0.000000000000000     0.000000000000000    -0.046476388581797
1 63
     0.029350383875437     0.030545421957001     0.030545421957001
    -0.007472837046101    -0.041571498199923     0.037393044026012
    -0.007472837046101     0.037393044026012    -0.041571498199923
1 64
    -0.025926451306954    -0.000000000000000     0.000000000000000
    -0.000000000000000    -0.025926451306954     0.000000000000000
     0.000000000000000     0.000000000000000    -0.025926451306954
1 65
    -9.138827142468600    -2.137260033009489    -2.137260033009490
    -2.137260033009488    -9.138827142468598    -2.137260033009490
    -2.137260033009489    -2.137260033009489    -9.138827142468600
1 66
    -0.384824862059216     0.240297069722448     0.240297069722448
     0.240297069722448    -0.084048242235102    -0.098039206162995
     0.240297069722448    -0.098039206162995    -0.084048242235102
1 67
    -0.384824862059216    -0.240297069722448    -0.240297069722448
    -0.240297069722448    -0.084048242235102    -0.098039206162995
    -0.240297069722448    -0.098039206162995    -0.084048242235102
1 68
    -9.138827142468600     2.137260033009489     2.137260033009490
     2.137260033009490    -9.138827142468600    -2.137260033009490
     2.137260033009489    -2.137260033009489    -9.138827142468600
1 69
    -0.084048242235102     0.240297069722448    -0.098039206162995
     0.240297069722448    -0.384824862059216     0.240297069722448
    -0.098039206162995     0.240297069722448    -0.084048242235102
1 70
     0.013943410996858    -0.023904451844792     0.023904451844792
    -0.023904451844792     0.013943410996859     0.023904451844792
     0.023904451844792     0.023904451844792     0.013943410996859
1 71
    -0.084048242235102     0.098039206162995    -0.240297069722448
     0.098039206162995    -0.084048242235102     0.240297069722448
    -0.240297069722448     0.240297069722448    -0.384824862059216
1 72
     0.061902044547359    -0.086488174950575     0.086488174950575
    -0.086488174950575     0.134100563721978    -0.020060796158958
     0.086488174950575    -0.020060796158958     0.134100563721978
1 73
    -0.084048242235102    -0.240297069722448    -0.098039206162995
    -0.240297069722448    -0.384824862059216    -0.240297069722448
    -0.098039206162995    -0.240297069722448    -0.084048242235102
1 74
    -0.084048242235102     0.098039206162995     0.240297069722448
     0.098039206162995    -0.084048242235101    -0.240297069722448
     0.240297069722448    -0.240297069722448    -0.384824862059216
1 75
    -0.000381246564766    -0.009676933077233     0.025052262927353
    -0.009676933077233    -0.000381246564766     0.025052262927353
     0.025052262927353     0.025052262927353     0.041910368076263
1 76
    -0.000381246564766    -0.025052262927353     0.009676933077233
    -0.025052262927353     0.041910368076263     0.025052262927353
     0.009676933077233     0.025052262927353    -0.000381246564766
1 77
    -9.138827142468601     2.137260033009489    -2.137260033009490
     2.137260033009490    -9.138827142468600     2.137260033009489
    -2.137260033009489     2.137260033009490    -9.138827142468603
1 78
     0.134100563721978    -0.086488174950575    -0.020060796158958
    -0.086488174950575     0.061902044547360     0.086488174950575
    -0.020060796158958     0.086488174950575     0.134100563721978
1 79
     0.041910368076263    -0.025052262927353     0.025052262927353
    -0.025052262927353    -0.000381246564766     0.009676933077233
     0.025052262927353     0.009676933077233    -0.000381246564766
1 80
     0.134100563721978     0.020060796158958     0.086488174950575
     0.020060796158958     0.134100563721978     0.086488174950575
     0.086488174950575     0.086488174950575     0.061902044547360
1 81
    -0.084048242235102    -0.098039206162995     0.240297069722448
    -0.098039206162995    -0.084048242235102     0.240297069722448
     0.240297069722448     0.240297069722448    -0.384824862059216
1 82
     0.013943410996858     0.023904451844792    -0.023904451844792
     0.023904451844792     0.013943410996859     0.023904451844792
    -0.023904451844792     0.023904451844792     0.013943410996859
1 83
    -0.084048242235102    -0.240297069722448     0.098039206162995
    -0.240297069722448    -0.384824862059215     0.240297069722448
     0.098039206162995     0.240297069722448    -0.084048242235102
1 84
     0.061902044547359     0.086488174950575    -0.086488174950575
     0.086488174950575     0.134100563721978    -0.020060796158958
    -0.086488174950575    -0.020060796158958     0.134100563721978
1 85
     0.013943410996859     0.023904451844792     0.023904451844792
     0.023904451844792     0.013943410996859    -0.023904451844792
     0.023904451844792    -0.023904451844792     0.013943410996859
1 86
     0.013943410996859    -0.023904451844792    -0.023904451844792
    -0.023904451844792     0.013943410996859    -0.023904451844792
    -0.023904451844792    -0.023904451844792     0.013943410996859
1 87
     0.006540886881312     0.007769777700025     0.007769777700025
     0.007769777700025     0.022484023476725     0.006352912487223
     0.007769777700025     0.006352912487223     0.022484023476725
1 88
     0.006540886881312    -0.007769777700025    -0.007769777700025
    -0.007769777700025     0.022484023476725     0.006352912487223
    -0.007769777700025     0.006352912487223     0.022484023476725
1 89
    -0.384824862059216    -0.240297069722448     0.240297069722448
    -0.240297069722448    -0.084048242235101     0.098039206162995
     0.240297069722448     0.098039206162995    -0.084048242235102
1 90
     0.022484023476725     0.007769777700025     0.006352912487223
     0.007769777700025     0.006540886881312     0.007769777700025
     0.006352912487223     0.007769777700025     0.022484023476725
1 91
     0.012155845054019     0.000228395490323    -0.000228395490323
     0.000228395490323     0.012155845054019    -0.000228395490323
    -0.000228395490323    -0.000228395490323     0.012155845054019
1 92
     0.022484023476725    -0.006352912487223    -0.007769777700025
    -0.006352912487223     0.022484023476725     0.007769777700025
    -0.007769777700025     0.007769777700025     0.006540886881312
1 93
     0.134100563721978     0.086488174950575    -0.020060796158958
     0.086488174950575     0.061902044547360    -0.086488174950575
    -0.020060796158958    -0.086488174950575     0.134100563721978
1 94
     0.022484023476725    -0.007769777700025     0.006352912487223
    -0.007769777700025     0.006540886881312    -0.007769777700025
     0.006352912487223    -0.007769777700025     0.022484023476725
1 95
     0.022484023476725    -0.006352912487223     0.007769777700025
    -0.006352912487223     0.022484023476725    -0.007769777700025
     0.007769777700025    -0.007769777700025     0.006540886881312
1 96
     0.134100563721978     0.020060796158958    -0.086488174950575
     0.020060796158958     0.134100563721978    -0.086488174950575
    -0.086488174950575    -0.086488174950575     0.061902044547360
1 97
    -0.084048242235102    -0.098039206162995    -0.240297069722448
    -0.098039206162995    -0.084048242235102    -0.240297069722448
    -0.240297069722448    -0.240297069722448    -0.384824862059216
1 98
    -0.084048242235102     0.240297069722448     0.098039206162995
     0.240297069722448    -0.384824862059215    -0.240297069722448
     0.098039206162995    -0.240297069722448    -0.084048242235102
1 99
    -0.000381246564766     0.025052262927353    -0.009676933077233
     0.025052262927353     0.041910368076263     0.025052262927353
    -0.009676933077233     0.025052262927353    -0.000381246564766
1 100
    -0.000381246564766     0.009676933077233    -0.025052262927353
     0.009676933077233    -0.000381246564766     0.025052262927353
    -0.025052262927353     0.025052262927353     0.041910368076263
1 101
    -0.384824862059216     0.240297069722448    -0.240297069722448
     0.240297069722448    -0.084048242235102     0.098039206162995
    -0.240297069722448     0.098039206162995    -0.084048242235102
1 102
     0.022484023476725     0.006352912487223     0.007769777700025
     0.006352912487223     0.022484023476725     0.007769777700025
     0.007769777700025     0.007769777700025     0.006540886881312
1 103
     0.012155845054019    -0.000228395490323     0.000228395490323
    -0.000228395490323     0.012155845054019    -0.000228395490323
     0.000228395490323    -0.000228395490323     0.012155845054019
1 104
     0.022484023476725    -0.007769777700025    -0.006352912487223
    -0.007769777700025     0.006540886881312     0.007769777700025
    -0.006352912487223     0.007769777700025     0.022484023476725
1 105
     0.041910368076263     0.025052262927353     0.025052262927353
     0.025052262927353    -0.000381246564766    -0.009676933077233
     0.025052262927353    -0.009676933077233    -0.000381246564766
1 106
     0.012155845054019    -0.000228395490323    -0.000228395490323
    -0.000228395490323     0.012155845054019     0.000228395490323
    -0.000228395490323     0.000228395490323     0.012155845054019
1 107
     0.012155845054019     0.000228395490323     0.000228395490323
     0.000228395490323     0.012155845054019     0.000228395490323
     0.000228395490323     0.000228395490323     0.012155845054019
1 108
     0.041910368076263    -0.025052262927353    -0.025052262927353
    -0.025052262927353    -0.000381246564766    -0.009676933077233
    -0.025052262927353    -0.009676933077233    -0.000381246564766
1 109
    -0.000381246564766     0.009676933077233     0.025052262927353
     0.009676933077233    -0.000381246564766    -0.025052262927353
     0.025052262927353    -0.025052262927353     0.041910368076263
1 110
     0.006540886881312    -0.007769777700025     0.007769777700025
    -0.007769777700025     0.022484023476725    -0.006352912487223
     0.007769777700025    -0.006352912487223     0.022484023476725
1 111
    -0.000381246564766    -0.025052262927353    -0.009676933077233
    -0.025052262927353     0.041910368076263    -0.025052262927353
    -0.009676933077233    -0.025052262927353    -0.000381246564766
1 112
     0.018846312640911    -0.006704874887558     0.006704874887558
    -0.006704874887558     0.018846312640911     0.006704874887558
     0.006704874887558     0.006704874887558     0.018846312640911
1 113
    -9.138827142468600    -2.137260033009490     2.137260033009490
    -2.137260033009489    -9.138827142468600     2.137260033009489
     2.137260033009489     2.137260033009490    -9.138827142468600
1 114
     0.134100563721978    -0.020060796158958    -0.086488174950575
    -0.020060796158958     0.134100563721978     0.086488174950575
    -0.086488174950575     0.086488174950574     0.061902044547360
1 115
     0.041910368076263     0.025052262927353    -0.025052262927353
     0.025052262927353    -0.000381246564766     0.009676933077233
    -0.025052262927353     0.009676933077233    -0.000381246564766
1 116
     0.134100563721978     0.086488174950575     0.020060796158958
     0.086488174950575     0.061902044547360     0.086488174950575
     0.020060796158958     0.086488174950575     0.134100563721978
1 117
     0.134100563721978    -0.020060796158958     0.086488174950575
    -0.020060796158958     0.134100563721978    -0.086488174950575
     0.086488174950575    -0.086488174950575     0.061902044547360
1 118
     0.022484023476725     0.006352912487223    -0.007769777700025
     0.006352912487223     0.022484023476725    -0.007769777700025
    -0.007769777700025    -0.007769777700025     0.006540886881312
1 119
     0.022484023476725     0.007769777700025    -0.006352912487223
     0.007769777700025     0.006540886881312    -0.007769777700025
    -0.006352912487223    -0.007769777700025     0.022484023476725
1 120
     0.134100563721978    -0.086488174950575     0.020060796158958
    -0.086488174950575     0.061902044547360    -0.086488174950575
     0.020060796158958    -0.086488174950575     0.134100563721978
1 121
    -0.000381246564766     0.025052262927353     0.009676933077233
     0.025052262927353     0.041910368076263    -0.025052262927353
     0.009676933077233    -0.025052262927353    -0.000381246564766
1 122
     0.006540886881312     0.007769777700025    -0.007769777700025
     0.007769777700025     0.022484023476725    -0.006352912487223
    -0.007769777700025    -0.006352912487223     0.022484023476725
1 123
    -0.000381246564766    -0.009676933077233    -0.025052262927353
    -0.009676933077233    -0.000381246564766    -0.025052262927353
    -0.025052262927353    -0.025052262927353     0.041910368076263
1 124
     0.018846312640911     0.006704874887559    -0.006704874887558
     0.006704874887558     0.018846312640911     0.006704874887558
    -0.006704874887558     0.006704874887558     0.018846312640911
1 125
     0.061902044547360     0.086488174950575     0.086488174950575
     0.086488174950575     0.134100563721978     0.020060796158958
     0.086488174950575     0.020060796158958     0.134100563721978
1 126
     0.061902044547360    -0.086488174950575    -0.086488174950575
    -0.086488174950575     0.134100563721978     0.020060796158958
    -0.086488174950575     0.020060796158958     0.134100563721978
1 127
     0.018846312640911     0.006704874887559     0.006704874887558
     0.006704874887558     0.018846312640911    -0.006704874887558
     0.006704874887558    -0.006704874887559     0.018846312640911
1 128
     0.018846312640911    -0.006704874887558    -0.006704874887558
    -0.006704874887558     0.018846312640911    -0.006704874887558
    -0.006704874887558    -0.006704874887559     0.018846312640911
2 1
     1.396577584522158    -0.721864762622516    -0.721864762622516
     0.721864762622515    -1.522934969912481    -1.591344429778752
     0.721864762622515    -1.591344429778752    -1.522934969912481
2 2
    44.178109037575936     0.000000000000004    -0.000000000000001
     0.000000000000004    44.178109037575879    -0.000000000000005
    -0.000000000000001    -0.000000000000005    44.178109037575922
2 3
     1.396577584522158     0.721864762622515     0.721864762622515
    -0.721864762622516    -1.522934969912481    -1.591344429778752
    -0.721864762622516    -1.591344429778752    -1.522934969912481
2 4
     0.283726921883133    -0.000000000000000    -0.000000000000000
    -0.000000000000000    -0.059701760263720    -0.102004219050151
    -0.000000000000000    -0.102004219050151    -0.059701760263720
2 5
    -1.522934969912482     1.591344429778753     0.721864762622515
     1.591344429778753    -1.522934969912481    -0.721864762622515
    -0.721864762622516     0.721864762622516     1.396577584522158
2 6
    -1.522934969912482    -0.721864762622516    -1.591344429778753
     0.721864762622515     1.396577584522158     0.721864762622515
    -1.591344429778753    -0.721864762622515    -1.522934969912481
2 7
    -0.041571498199923     0.037393044026012    -0.030545421957001
     0.037393044026012    -0.041571498199923    -0.030545421957001
     0.007472837046101     0.007472837046101     0.029350383875437
2 8
    -0.041571498199923     0.030545421957001    -0.037393044026012
    -0.007472837046101     0.029350383875437     0.007472837046101
    -0.037393044026012    -0.030545421957001    -0.041571498199923
2 9
     0.029350383875437     0.030545421957001    -0.030545421957001
    -0.007472837046101    -0.041571498199923    -0.037393044026012
     0.007472837046101    -0.037393044026011    -0.041571498199923
2 10
    -0.059701760263720    -0.000000000000000    -0.102004219050151
    -0.000000000000000     0.283726921883133     0.000000000000000
    -0.102004219050151     0.000000000000000    -0.059701760263720
2 11
     0.029350383875437    -0.007472837046101     0.007472837046101
     0.030545421957001    -0.041571498199923    -0.037393044026012
    -0.030545421957001    -0.037393044026012    -0.041571498199923
2 12
    -0.059701760263720     0.102004219050151    -0.000000000000000
     0.102004219050151    -0.059701760263720     0.000000000000000
     0.000000000000000     0.000000000000000     0.283726921883133
2 13
    -0.041571498199923     0.037393044026012     0.007472837046101
     0.037393044026012    -0.041571498199923     0.007472837046101
    -0.030545421957001    -0.030545421957001     0.029350383875437
2 14
    -1.522934969912482     0.721864762622515    -1.591344429778753
    -0.721864762622516     1.396577584522158    -0.721864762622515
    -1.591344429778753     0.721864762622515    -1.522934969912481
2 15
    -1.522934969912482     1.591344429778753    -0.721864762622516
     1.591344429778753    -1.522934969912481     0.721864762622516
     0.721864762622515    -0.721864762622515     1.396577584522158
2 16
    -0.041571498199923    -0.007472837046101    -0.037393044026012
     0.030545421957001     0.029350383875437    -0.030545421957001
    -0.037393044026012     0.007472837046101    -0.041571498199923
2 17
    -1.522934969912482     0.721864762622515     1.591344429778753
    -0.721864762622516     1.396577584522157     0.721864762622515
     1.591344429778753    -0.721864762622515    -1.522934969912481
2 18
    -1.522934969912482    -1.591344429778753    -0.721864762622515